
320 atoms
15 atom types
   0.0000000000   16.1320000000 xlo xhi
   0.0000000000   16.1320000000 ylo yhi
   0.0000000000   16.1320000000 zlo zhi
   0.0000000000    0.0000000000    0.0000000000 xy xz yz

Atoms # atomic

     1      2    0.3000000000    0.3000000000    0.3000000000
     2      2    0.3000000000    0.3000000000    4.3330000000
     3      2    0.3000000000    0.3000000000    8.3660000000
     4      2    0.3000000000    0.3000000000   12.3990000000
     5      2    0.3000000000    4.3330000000    0.3000000000
     6      2    0.3000000000    4.3330000000    4.3330000000
     7      2    0.3000000000    4.3330000000    8.3660000000
     8      2    0.3000000000    4.3330000000   12.3990000000
     9      2    0.3000000000    8.3660000000    0.3000000000
    10      2    0.3000000000    8.3660000000    4.3330000000
    11      2    0.3000000000    8.3660000000    8.3660000000
    12      2    0.3000000000    8.3660000000   12.3990000000
    13      2    0.3000000000   12.3990000000    0.3000000000
    14      2    0.3000000000   12.3990000000    4.3330000000
    15      2    0.3000000000   12.3990000000    8.3660000000
    16      2    0.3000000000   12.3990000000   12.3990000000
    17      2    4.3330000000    0.3000000000    0.3000000000
    18      2    4.3330000000    0.3000000000    4.3330000000
    19      2    4.3330000000    0.3000000000    8.3660000000
    20      2    4.3330000000    0.3000000000   12.3990000000
    21      2    4.3330000000    4.3330000000    0.3000000000
    22      2    4.3330000000    4.3330000000    4.3330000000
    23      2    4.3330000000    4.3330000000    8.3660000000
    24      2    4.3330000000    4.3330000000   12.3990000000
    25      2    4.3330000000    8.3660000000    0.3000000000
    26      2    4.3330000000    8.3660000000    4.3330000000
    27      2    4.3330000000    8.3660000000    8.3660000000
    28      2    4.3330000000    8.3660000000   12.3990000000
    29      2    4.3330000000   12.3990000000    0.3000000000
    30      2    4.3330000000   12.3990000000    4.3330000000
    31      2    4.3330000000   12.3990000000    8.3660000000
    32      2    4.3330000000   12.3990000000   12.3990000000
    33      2    8.3660000000    0.3000000000    0.3000000000
    34      2    8.3660000000    0.3000000000    4.3330000000
    35      2    8.3660000000    0.3000000000    8.3660000000
    36      2    8.3660000000    0.3000000000   12.3990000000
    37      2    8.3660000000    4.3330000000    0.3000000000
    38      2    8.3660000000    4.3330000000    4.3330000000
    39      2    8.3660000000    4.3330000000    8.3660000000
    40      2    8.3660000000    4.3330000000   12.3990000000
    41      2    8.3660000000    8.3660000000    0.3000000000
    42      2    8.3660000000    8.3660000000    4.3330000000
    43      2    8.3660000000    8.3660000000    8.3660000000
    44      2    8.3660000000    8.3660000000   12.3990000000
    45      2    8.3660000000   12.3990000000    0.3000000000
    46      2    8.3660000000   12.3990000000    4.3330000000
    47      2    8.3660000000   12.3990000000    8.3660000000
    48      2    8.3660000000   12.3990000000   12.3990000000
    49      2   12.3990000000    0.3000000000    0.3000000000
    50      2   12.3990000000    0.3000000000    4.3330000000
    51      2   12.3990000000    0.3000000000    8.3660000000
    52      2   12.3990000000    0.3000000000   12.3990000000
    53      2   12.3990000000    4.3330000000    0.3000000000
    54      2   12.3990000000    4.3330000000    4.3330000000
    55      2   12.3990000000    4.3330000000    8.3660000000
    56      2   12.3990000000    4.3330000000   12.3990000000
    57      2   12.3990000000    8.3660000000    0.3000000000
    58      2   12.3990000000    8.3660000000    4.3330000000
    59      2   12.3990000000    8.3660000000    8.3660000000
    60      2   12.3990000000    8.3660000000   12.3990000000
    61      2   12.3990000000   12.3990000000    0.3000000000
    62      2   12.3990000000   12.3990000000    4.3330000000
    63      2   12.3990000000   12.3990000000    8.3660000000
    64      2   12.3990000000   12.3990000000   12.3990000000
    65      9    2.3165000000    2.3165000000    2.3165000000
    66      9    2.3165000000    2.3165000000    6.3495000000
    67      9    2.3165000000    2.3165000000   10.3825000000
    68      9    2.3165000000    2.3165000000   14.4155000000
    69      9    2.3165000000    6.3495000000    2.3165000000
    70      9    2.3165000000    6.3495000000    6.3495000000
    71      9    2.3165000000    6.3495000000   10.3825000000
    72      9    2.3165000000    6.3495000000   14.4155000000
    73      9    2.3165000000   10.3825000000    2.3165000000
    74      9    2.3165000000   10.3825000000    6.3495000000
    75      9    2.3165000000   10.3825000000   10.3825000000
    76      9    2.3165000000   10.3825000000   14.4155000000
    77      9    2.3165000000   14.4155000000    2.3165000000
    78      9    2.3165000000   14.4155000000    6.3495000000
    79      9    2.3165000000   14.4155000000   10.3825000000
    80      9    2.3165000000   14.4155000000   14.4155000000
    81      9    6.3495000000    2.3165000000    2.3165000000
    82      9    6.3495000000    2.3165000000    6.3495000000
    83      9    6.3495000000    2.3165000000   10.3825000000
    84      9    6.3495000000    2.3165000000   14.4155000000
    85      9    6.3495000000    6.3495000000    2.3165000000
    86      9    6.3495000000    6.3495000000    6.3495000000
    87      9    6.3495000000    6.3495000000   10.3825000000
    88      9    6.3495000000    6.3495000000   14.4155000000
    89      9    6.3495000000   10.3825000000    2.3165000000
    90      9    6.3495000000   10.3825000000    6.3495000000
    91      9    6.3495000000   10.3825000000   10.3825000000
    92      9    6.3495000000   10.3825000000   14.4155000000
    93      9    6.3495000000   14.4155000000    2.3165000000
    94      9    6.3495000000   14.4155000000    6.3495000000
    95      9    6.3495000000   14.4155000000   10.3825000000
    96      9    6.3495000000   14.4155000000   14.4155000000
    97      9   10.3825000000    2.3165000000    2.3165000000
    98      9   10.3825000000    2.3165000000    6.3495000000
    99      9   10.3825000000    2.3165000000   10.3825000000
   100      9   10.3825000000    2.3165000000   14.4155000000
   101      9   10.3825000000    6.3495000000    2.3165000000
   102      9   10.3825000000    6.3495000000    6.3495000000
   103      9   10.3825000000    6.3495000000   10.3825000000
   104      9   10.3825000000    6.3495000000   14.4155000000
   105      9   10.3825000000   10.3825000000    2.3165000000
   106      9   10.3825000000   10.3825000000    6.3495000000
   107      9   10.3825000000   10.3825000000   10.3825000000
   108      9   10.3825000000   10.3825000000   14.4155000000
   109      9   10.3825000000   14.4155000000    2.3165000000
   110      9   10.3825000000   14.4155000000    6.3495000000
   111      9   10.3825000000   14.4155000000   10.3825000000
   112      9   10.3825000000   14.4155000000   14.4155000000
   113      9   14.4155000000    2.3165000000    2.3165000000
   114      9   14.4155000000    2.3165000000    6.3495000000
   115      9   14.4155000000    2.3165000000   10.3825000000
   116      9   14.4155000000    2.3165000000   14.4155000000
   117      9   14.4155000000    6.3495000000    2.3165000000
   118      9   14.4155000000    6.3495000000    6.3495000000
   119      9   14.4155000000    6.3495000000   10.3825000000
   120      9   14.4155000000    6.3495000000   14.4155000000
   121      9   14.4155000000   10.3825000000    2.3165000000
   122      9   14.4155000000   10.3825000000    6.3495000000
   123      9   14.4155000000   10.3825000000   10.3825000000
   124      9   14.4155000000   10.3825000000   14.4155000000
   125      9   14.4155000000   14.4155000000    2.3165000000
   126      9   14.4155000000   14.4155000000    6.3495000000
   127      9   14.4155000000   14.4155000000   10.3825000000
   128      9   14.4155000000   14.4155000000   14.4155000000
   129     15    2.0165000000    2.0165000000    0.0000000000
   130     15    0.0000000000    2.0165000000    2.0165000000
   131     15    2.0165000000    0.0000000000    2.0165000000
   132     15    2.0165000000    2.0165000000    4.0330000000
   133     15    0.0000000000    2.0165000000    6.0495000000
   134     15    2.0165000000    0.0000000000    6.0495000000
   135     15    2.0165000000    2.0165000000    8.0660000000
   136     15    0.0000000000    2.0165000000   10.0825000000
   137     15    2.0165000000    0.0000000000   10.0825000000
   138     15    2.0165000000    2.0165000000   12.0990000000
   139     15    0.0000000000    2.0165000000   14.1155000000
   140     15    2.0165000000    0.0000000000   14.1155000000
   141     15    2.0165000000    6.0495000000    0.0000000000
   142     15    0.0000000000    6.0495000000    2.0165000000
   143     15    2.0165000000    4.0330000000    2.0165000000
   144     15    2.0165000000    6.0495000000    4.0330000000
   145     15    0.0000000000    6.0495000000    6.0495000000
   146     15    2.0165000000    4.0330000000    6.0495000000
   147     15    2.0165000000    6.0495000000    8.0660000000
   148     15    0.0000000000    6.0495000000   10.0825000000
   149     15    2.0165000000    4.0330000000   10.0825000000
   150     15    2.0165000000    6.0495000000   12.0990000000
   151     15    0.0000000000    6.0495000000   14.1155000000
   152     15    2.0165000000    4.0330000000   14.1155000000
   153     15    2.0165000000   10.0825000000    0.0000000000
   154     15    0.0000000000   10.0825000000    2.0165000000
   155     15    2.0165000000    8.0660000000    2.0165000000
   156     15    2.0165000000   10.0825000000    4.0330000000
   157     15    0.0000000000   10.0825000000    6.0495000000
   158     15    2.0165000000    8.0660000000    6.0495000000
   159     15    2.0165000000   10.0825000000    8.0660000000
   160     15    0.0000000000   10.0825000000   10.0825000000
   161     15    2.0165000000    8.0660000000   10.0825000000
   162     15    2.0165000000   10.0825000000   12.0990000000
   163     15    0.0000000000   10.0825000000   14.1155000000
   164     15    2.0165000000    8.0660000000   14.1155000000
   165     15    2.0165000000   14.1155000000    0.0000000000
   166     15    0.0000000000   14.1155000000    2.0165000000
   167     15    2.0165000000   12.0990000000    2.0165000000
   168     15    2.0165000000   14.1155000000    4.0330000000
   169     15    0.0000000000   14.1155000000    6.0495000000
   170     15    2.0165000000   12.0990000000    6.0495000000
   171     15    2.0165000000   14.1155000000    8.0660000000
   172     15    0.0000000000   14.1155000000   10.0825000000
   173     15    2.0165000000   12.0990000000   10.0825000000
   174     15    2.0165000000   14.1155000000   12.0990000000
   175     15    0.0000000000   14.1155000000   14.1155000000
   176     15    2.0165000000   12.0990000000   14.1155000000
   177     15    6.0495000000    2.0165000000    0.0000000000
   178     15    4.0330000000    2.0165000000    2.0165000000
   179     15    6.0495000000    0.0000000000    2.0165000000
   180     15    6.0495000000    2.0165000000    4.0330000000
   181     15    4.0330000000    2.0165000000    6.0495000000
   182     15    6.0495000000    0.0000000000    6.0495000000
   183     15    6.0495000000    2.0165000000    8.0660000000
   184     15    4.0330000000    2.0165000000   10.0825000000
   185     15    6.0495000000    0.0000000000   10.0825000000
   186     15    6.0495000000    2.0165000000   12.0990000000
   187     15    4.0330000000    2.0165000000   14.1155000000
   188     15    6.0495000000    0.0000000000   14.1155000000
   189     15    6.0495000000    6.0495000000    0.0000000000
   190     15    4.0330000000    6.0495000000    2.0165000000
   191     15    6.0495000000    4.0330000000    2.0165000000
   192     15    6.0495000000    6.0495000000    4.0330000000
   193     15    4.0330000000    6.0495000000    6.0495000000
   194     15    6.0495000000    4.0330000000    6.0495000000
   195     15    6.0495000000    6.0495000000    8.0660000000
   196     15    4.0330000000    6.0495000000   10.0825000000
   197     15    6.0495000000    4.0330000000   10.0825000000
   198     15    6.0495000000    6.0495000000   12.0990000000
   199     15    4.0330000000    6.0495000000   14.1155000000
   200     15    6.0495000000    4.0330000000   14.1155000000
   201     15    6.0495000000   10.0825000000    0.0000000000
   202     15    4.0330000000   10.0825000000    2.0165000000
   203     15    6.0495000000    8.0660000000    2.0165000000
   204     15    6.0495000000   10.0825000000    4.0330000000
   205     15    4.0330000000   10.0825000000    6.0495000000
   206     15    6.0495000000    8.0660000000    6.0495000000
   207     15    6.0495000000   10.0825000000    8.0660000000
   208     15    4.0330000000   10.0825000000   10.0825000000
   209     15    6.0495000000    8.0660000000   10.0825000000
   210     15    6.0495000000   10.0825000000   12.0990000000
   211     15    4.0330000000   10.0825000000   14.1155000000
   212     15    6.0495000000    8.0660000000   14.1155000000
   213     15    6.0495000000   14.1155000000    0.0000000000
   214     15    4.0330000000   14.1155000000    2.0165000000
   215     15    6.0495000000   12.0990000000    2.0165000000
   216     15    6.0495000000   14.1155000000    4.0330000000
   217     15    4.0330000000   14.1155000000    6.0495000000
   218     15    6.0495000000   12.0990000000    6.0495000000
   219     15    6.0495000000   14.1155000000    8.0660000000
   220     15    4.0330000000   14.1155000000   10.0825000000
   221     15    6.0495000000   12.0990000000   10.0825000000
   222     15    6.0495000000   14.1155000000   12.0990000000
   223     15    4.0330000000   14.1155000000   14.1155000000
   224     15    6.0495000000   12.0990000000   14.1155000000
   225     15   10.0825000000    2.0165000000    0.0000000000
   226     15    8.0660000000    2.0165000000    2.0165000000
   227     15   10.0825000000    0.0000000000    2.0165000000
   228     15   10.0825000000    2.0165000000    4.0330000000
   229     15    8.0660000000    2.0165000000    6.0495000000
   230     15   10.0825000000    0.0000000000    6.0495000000
   231     15   10.0825000000    2.0165000000    8.0660000000
   232     15    8.0660000000    2.0165000000   10.0825000000
   233     15   10.0825000000    0.0000000000   10.0825000000
   234     15   10.0825000000    2.0165000000   12.0990000000
   235     15    8.0660000000    2.0165000000   14.1155000000
   236     15   10.0825000000    0.0000000000   14.1155000000
   237     15   10.0825000000    6.0495000000    0.0000000000
   238     15    8.0660000000    6.0495000000    2.0165000000
   239     15   10.0825000000    4.0330000000    2.0165000000
   240     15   10.0825000000    6.0495000000    4.0330000000
   241     15    8.0660000000    6.0495000000    6.0495000000
   242     15   10.0825000000    4.0330000000    6.0495000000
   243     15   10.0825000000    6.0495000000    8.0660000000
   244     15    8.0660000000    6.0495000000   10.0825000000
   245     15   10.0825000000    4.0330000000   10.0825000000
   246     15   10.0825000000    6.0495000000   12.0990000000
   247     15    8.0660000000    6.0495000000   14.1155000000
   248     15   10.0825000000    4.0330000000   14.1155000000
   249     15   10.0825000000   10.0825000000    0.0000000000
   250     15    8.0660000000   10.0825000000    2.0165000000
   251     15   10.0825000000    8.0660000000    2.0165000000
   252     15   10.0825000000   10.0825000000    4.0330000000
   253     15    8.0660000000   10.0825000000    6.0495000000
   254     15   10.0825000000    8.0660000000    6.0495000000
   255     15   10.0825000000   10.0825000000    8.0660000000
   256     15    8.0660000000   10.0825000000   10.0825000000
   257     15   10.0825000000    8.0660000000   10.0825000000
   258     15   10.0825000000   10.0825000000   12.0990000000
   259     15    8.0660000000   10.0825000000   14.1155000000
   260     15   10.0825000000    8.0660000000   14.1155000000
   261     15   10.0825000000   14.1155000000    0.0000000000
   262     15    8.0660000000   14.1155000000    2.0165000000
   263     15   10.0825000000   12.0990000000    2.0165000000
   264     15   10.0825000000   14.1155000000    4.0330000000
   265     15    8.0660000000   14.1155000000    6.0495000000
   266     15   10.0825000000   12.0990000000    6.0495000000
   267     15   10.0825000000   14.1155000000    8.0660000000
   268     15    8.0660000000   14.1155000000   10.0825000000
   269     15   10.0825000000   12.0990000000   10.0825000000
   270     15   10.0825000000   14.1155000000   12.0990000000
   271     15    8.0660000000   14.1155000000   14.1155000000
   272     15   10.0825000000   12.0990000000   14.1155000000
   273     15   14.1155000000    2.0165000000    0.0000000000
   274     15   12.0990000000    2.0165000000    2.0165000000
   275     15   14.1155000000    0.0000000000    2.0165000000
   276     15   14.1155000000    2.0165000000    4.0330000000
   277     15   12.0990000000    2.0165000000    6.0495000000
   278     15   14.1155000000    0.0000000000    6.0495000000
   279     15   14.1155000000    2.0165000000    8.0660000000
   280     15   12.0990000000    2.0165000000   10.0825000000
   281     15   14.1155000000    0.0000000000   10.0825000000
   282     15   14.1155000000    2.0165000000   12.0990000000
   283     15   12.0990000000    2.0165000000   14.1155000000
   284     15   14.1155000000    0.0000000000   14.1155000000
   285     15   14.1155000000    6.0495000000    0.0000000000
   286     15   12.0990000000    6.0495000000    2.0165000000
   287     15   14.1155000000    4.0330000000    2.0165000000
   288     15   14.1155000000    6.0495000000    4.0330000000
   289     15   12.0990000000    6.0495000000    6.0495000000
   290     15   14.1155000000    4.0330000000    6.0495000000
   291     15   14.1155000000    6.0495000000    8.0660000000
   292     15   12.0990000000    6.0495000000   10.0825000000
   293     15   14.1155000000    4.0330000000   10.0825000000
   294     15   14.1155000000    6.0495000000   12.0990000000
   295     15   12.0990000000    6.0495000000   14.1155000000
   296     15   14.1155000000    4.0330000000   14.1155000000
   297     15   14.1155000000   10.0825000000    0.0000000000
   298     15   12.0990000000   10.0825000000    2.0165000000
   299     15   14.1155000000    8.0660000000    2.0165000000
   300     15   14.1155000000   10.0825000000    4.0330000000
   301     15   12.0990000000   10.0825000000    6.0495000000
   302     15   14.1155000000    8.0660000000    6.0495000000
   303     15   14.1155000000   10.0825000000    8.0660000000
   304     15   12.0990000000   10.0825000000   10.0825000000
   305     15   14.1155000000    8.0660000000   10.0825000000
   306     15   14.1155000000   10.0825000000   12.0990000000
   307     15   12.0990000000   10.0825000000   14.1155000000
   308     15   14.1155000000    8.0660000000   14.1155000000
   309     15   14.1155000000   14.1155000000    0.0000000000
   310     15   12.0990000000   14.1155000000    2.0165000000
   311     15   14.1155000000   12.0990000000    2.0165000000
   312     15   14.1155000000   14.1155000000    4.0330000000
   313     15   12.0990000000   14.1155000000    6.0495000000
   314     15   14.1155000000   12.0990000000    6.0495000000
   315     15   14.1155000000   14.1155000000    8.0660000000
   316     15   12.0990000000   14.1155000000   10.0825000000
   317     15   14.1155000000   12.0990000000   10.0825000000
   318     15   14.1155000000   14.1155000000   12.0990000000
   319     15   12.0990000000   14.1155000000   14.1155000000
   320     15   14.1155000000   12.0990000000   14.1155000000
